LAMMPS data file for pure solvent box

9734 atoms
0 bonds
0 angles
0 dihedrals
0 impropers

1 atom types

0.0 24.13626193478645 xlo xhi
0.0 24.13626193478645 ylo yhi
0.0 16.709719801006006 zlo zhi

Masses

1 1.0  # Solvent

Atoms

1 1 1 9.039998 22.946690 12.231414
2 2 1 14.449378 3.765707 2.606625
3 3 1 1.401921 20.906254 10.044463
4 4 1 17.090225 0.496833 16.206922
5 5 1 20.092054 5.125072 3.038244
6 6 1 4.426699 7.343270 8.768533
7 7 1 10.425538 7.029183 10.223890
8 8 1 3.366860 7.051280 6.121804
9 9 1 11.007825 18.951213 3.336493
10 10 1 12.411697 14.298673 0.776173
11 11 1 14.663862 4.115815 1.086994
12 12 1 22.902550 23.306748 13.508093
13 13 1 7.352238 2.357440 11.433342
14 14 1 10.623636 2.945547 8.274267
15 15 1 0.830010 21.947595 4.324141
16 16 1 15.990811 7.523540 8.690191
17 17 1 13.195543 4.461696 16.201487
18 18 1 18.708809 22.675993 14.952314
19 19 1 14.431070 22.250598 1.478685
20 20 1 4.730294 1.091618 5.436179
21 21 1 9.381217 6.549351 13.847972
22 22 1 8.610692 6.780709 9.068299
23 23 1 3.401384 19.362036 1.245720
24 24 1 23.819762 18.639102 3.320483
25 25 1 0.133283 19.682191 11.811388
26 26 1 17.595508 18.615583 1.237265
27 27 1 8.652023 2.796646 14.422216
28 28 1 15.044087 7.986641 1.062042
29 29 1 7.505951 7.848710 12.191515
30 30 1 15.388254 21.413999 7.890579
31 31 1 2.886558 17.215063 12.712505
32 32 1 13.547133 18.608266 8.251186
33 33 1 12.616816 10.319242 0.424746
34 34 1 2.604096 0.758583 10.634240
35 35 1 7.587378 12.274995 15.165181
36 36 1 6.016983 9.905110 12.625048
37 37 1 5.522332 1.858007 4.841666
38 38 1 3.891279 22.439426 13.503465
39 39 1 15.287999 21.033801 13.429135
40 40 1 4.503104 21.543038 9.012258
41 41 1 19.488587 21.628294 5.313749
42 42 1 2.656242 5.501503 7.136851
43 43 1 19.743819 20.774819 0.116168
44 44 1 12.327531 10.074741 3.711359
45 45 1 2.893102 8.148768 15.755757
46 46 1 7.800911 12.521666 11.747250
47 47 1 8.776659 23.455187 16.082225
48 48 1 6.077083 12.001720 5.027592
49 49 1 6.874985 0.890313 10.185649
50 50 1 12.132793 1.242505 4.656104
51 51 1 21.922143 5.782129 2.421153
52 52 1 11.813560 23.789918 4.044676
53 53 1 16.222840 18.382651 3.970857
54 54 1 17.576421 8.876910 10.565653
55 55 1 15.291039 12.931598 1.508717
56 56 1 20.161080 7.742432 3.116672
57 57 1 0.984159 14.261947 11.321911
58 58 1 0.400368 12.360012 3.784681
59 59 1 15.572059 4.208554 11.545376
60 60 1 9.334346 22.609160 2.297936
61 61 1 8.232067 2.738827 15.451371
62 62 1 21.175692 6.225747 11.028148
63 63 1 19.724689 13.400472 8.850313
64 64 1 5.837410 2.247153 14.992224
65 65 1 21.732726 15.280703 5.665093
66 66 1 8.428614 17.521856 14.990461
67 67 1 21.410950 18.823280 10.728169
68 68 1 2.030824 3.901113 15.014589
69 69 1 14.636931 0.221982 1.695561
70 70 1 16.014452 0.122168 2.687057
71 71 1 13.244382 16.699764 10.894090
72 72 1 5.413023 17.189344 3.964366
73 73 1 7.853932 18.017512 10.855184
74 74 1 20.497079 15.872317 9.496278
75 75 1 2.260959 8.875285 4.431457
76 76 1 5.888998 23.484838 6.568553
77 77 1 21.530669 15.233327 13.281074
78 78 1 12.131781 13.924303 8.229833
79 79 1 4.712436 17.437293 4.691628
80 80 1 0.586897 15.579288 2.959470
81 81 1 22.699155 23.024270 15.287128
82 82 1 8.934247 0.373065 15.511943
83 83 1 10.334765 23.331434 16.101820
84 84 1 20.588460 7.106896 6.434875
85 85 1 13.439101 22.595277 11.630463
86 86 1 13.759146 2.345477 10.276598
87 87 1 23.896199 3.381104 8.661143
88 88 1 21.176506 17.879385 11.646938
89 89 1 16.955340 8.676773 4.905837
90 90 1 19.534953 19.553109 14.488535
91 91 1 22.042213 12.341894 8.380197
92 92 1 19.267862 15.687700 11.729670
93 93 1 9.065169 2.268373 9.662899
94 94 1 0.867512 11.237796 9.067440
95 95 1 6.916035 14.260506 0.509651
96 96 1 0.901446 19.854503 6.018685
97 97 1 3.066766 12.605000 12.866377
98 98 1 5.209113 15.034248 1.426132
99 99 1 1.247404 12.824915 9.033861
100 100 1 15.385175 17.525131 16.306215
101 101 1 12.461560 7.794962 13.287339
102 102 1 6.536878 10.595129 1.310984
103 103 1 0.611872 23.234734 13.968994
104 104 1 16.798216 9.870595 2.895700
105 105 1 3.775805 6.039928 9.177424
106 106 1 17.247674 15.934697 4.677617
107 107 1 23.046879 17.810073 9.263101
108 108 1 14.764652 10.127577 4.139515
109 109 1 8.591850 18.291572 0.240511
110 110 1 2.801560 1.110332 0.680567
111 111 1 20.647621 16.983670 7.923312
112 112 1 2.361351 11.865770 7.911581
113 113 1 4.180446 10.471557 6.658902
114 114 1 14.864319 15.328787 0.757017
115 115 1 9.041748 15.105919 8.407266
116 116 1 20.672463 15.898402 2.722589
117 117 1 1.703266 15.505600 0.442997
118 118 1 14.138433 22.693643 9.616012
119 119 1 9.368971 15.526573 7.657277
120 120 1 13.169150 22.723441 6.451667
121 121 1 23.199547 21.851780 3.271615
122 122 1 1.674123 2.432404 0.304482
123 123 1 2.279500 16.485230 1.189542
124 124 1 7.698879 20.392132 0.388868
125 125 1 19.658225 6.802921 1.974501
126 126 1 16.816631 15.180329 14.662311
127 127 1 17.741867 19.393026 4.712719
128 128 1 4.282727 18.117034 13.481982
129 129 1 23.907092 9.959048 6.216318
130 130 1 18.739707 8.225724 15.552694
131 131 1 20.718875 10.354312 12.546845
132 132 1 18.211844 2.489025 15.081406
133 133 1 12.194904 19.947594 5.347939
134 134 1 21.614583 9.393874 0.181094
135 135 1 21.852537 2.203319 5.335641
136 136 1 22.930944 22.944103 9.581986
137 137 1 15.250188 10.823799 4.899470
138 138 1 7.932734 16.232082 12.571968
139 139 1 19.105759 19.058430 1.524028
140 140 1 11.933458 1.389253 9.182474
141 141 1 10.656896 21.425861 5.863692
142 142 1 2.825560 3.451285 12.724629
143 143 1 14.921473 2.440723 1.405401
144 144 1 16.918775 1.756227 13.733051
145 145 1 17.046047 1.963455 1.417614
146 146 1 23.813791 9.033498 6.193326
147 147 1 19.617943 22.863040 16.475801
148 148 1 18.183733 9.081500 1.395274
149 149 1 18.757422 13.477791 7.088631
150 150 1 21.876007 2.683892 8.231627
151 151 1 0.274035 11.311716 0.940812
152 152 1 2.867820 2.836644 10.848122
153 153 1 18.006735 14.080341 16.077634
154 154 1 9.047974 6.896022 14.514048
155 155 1 5.396768 23.248592 0.203098
156 156 1 23.409249 1.041719 14.890752
157 157 1 12.736732 23.966458 1.233120
158 158 1 13.367972 23.395340 8.740818
159 159 1 15.191330 16.792773 7.595254
160 160 1 15.146906 14.103163 15.058098
161 161 1 1.096906 6.781401 15.881110
162 162 1 21.487640 10.997851 10.362242
163 163 1 6.694945 4.540542 7.748270
164 164 1 8.528602 14.087277 1.298924
165 165 1 23.518248 23.803441 11.666087
166 166 1 16.526851 3.924965 15.221338
167 167 1 19.852974 22.924619 12.126570
168 168 1 14.805550 10.094823 15.585632
169 169 1 20.903545 1.091410 0.440585
170 170 1 9.086418 19.563728 16.497107
171 171 1 3.630501 14.340095 6.364579
172 172 1 23.410108 20.325603 14.008238
173 173 1 11.312501 10.012192 4.568556
174 174 1 1.360694 20.871166 13.583348
175 175 1 24.129448 24.055088 9.281108
176 176 1 18.560482 22.803113 14.197370
177 177 1 5.970059 10.874451 2.158218
178 178 1 23.027225 14.630790 3.820557
179 179 1 16.212344 14.919305 5.984799
180 180 1 2.740856 16.209267 8.694196
181 181 1 18.640879 12.554803 14.239714
182 182 1 13.320968 13.538946 14.648636
183 183 1 9.738568 3.234627 0.480950
184 184 1 18.226191 14.971954 11.764976
185 185 1 5.140159 3.291498 0.243037
186 186 1 8.461873 14.238408 6.554288
187 187 1 12.405785 18.914454 6.626119
188 188 1 15.014848 20.814236 15.866224
189 189 1 3.549804 22.364362 8.223125
190 190 1 6.233054 11.081821 16.376070
191 191 1 11.889959 7.934835 10.583951
192 192 1 5.796218 1.831057 2.153544
193 193 1 3.090548 3.666363 2.319763
194 194 1 15.468321 4.389905 5.776003
195 195 1 21.645120 11.439662 11.154703
196 196 1 4.159158 4.641138 0.682903
197 197 1 4.077461 6.724129 2.957796
198 198 1 2.140948 2.911699 7.699484
199 199 1 4.980125 8.792113 8.411962
200 200 1 16.663550 0.948848 13.357924
201 201 1 15.155168 1.973357 14.597254
202 202 1 22.226417 1.474194 4.626548
203 203 1 19.458685 18.060192 3.083295
204 204 1 14.922359 8.904196 7.728826
205 205 1 18.041154 0.885395 4.218151
206 206 1 17.217592 21.606947 8.549987
207 207 1 12.843230 2.586732 7.476135
208 208 1 12.855390 5.852332 4.498979
209 209 1 9.106229 0.484444 5.381853
210 210 1 5.103564 7.904562 2.001192
211 211 1 21.494000 14.327103 11.347609
212 212 1 19.047644 12.030531 1.452414
213 213 1 12.963744 14.164151 12.456085
214 214 1 10.418648 3.079312 4.741816
215 215 1 8.763449 15.590028 9.537546
216 216 1 8.594844 23.810790 10.122327
217 217 1 5.936500 3.878248 3.117483
218 218 1 6.881132 4.184591 14.984699
219 219 1 1.936543 12.659744 6.857616
220 220 1 23.710948 2.704200 6.648056
221 221 1 6.224810 4.124588 11.172841
222 222 1 22.431662 13.438175 9.551488
223 223 1 6.757649 18.572683 3.125449
224 224 1 7.812407 10.268445 8.482027
225 225 1 5.850865 2.771732 10.203290
226 226 1 6.966463 14.028918 2.579358
227 227 1 11.612924 12.854718 0.865957
228 228 1 8.124369 3.244268 1.058978
229 229 1 23.893939 7.780417 13.532775
230 230 1 6.146074 16.448928 12.703195
231 231 1 14.376493 11.382086 6.881746
232 232 1 8.420376 22.435359 13.879418
233 233 1 23.292142 3.000070 12.212591
234 234 1 22.648031 4.374289 1.111134
235 235 1 17.887882 13.865634 14.066723
236 236 1 3.373583 19.194780 3.369136
237 237 1 3.950043 3.964762 13.611315
238 238 1 16.055374 12.624844 5.995957
239 239 1 21.172342 9.472158 13.645148
240 240 1 10.599075 9.098029 7.731250
241 241 1 7.274135 18.044496 8.400317
242 242 1 5.604746 21.712368 6.414715
243 243 1 13.119334 21.878848 10.430842
244 244 1 2.821482 22.684034 10.488826
245 245 1 8.083370 3.361507 13.267938
246 246 1 14.966238 12.875757 14.936695
247 247 1 19.033789 3.660865 5.208788
248 248 1 5.997599 17.956083 0.560318
249 249 1 13.755007 18.402903 14.650508
250 250 1 8.256575 19.822081 1.848625
251 251 1 20.430194 3.077100 6.638559
252 252 1 19.243730 3.618446 3.830727
253 253 1 17.432477 17.378990 10.713397
254 254 1 16.749321 13.099339 4.207492
255 255 1 8.343809 4.383090 15.179954
256 256 1 14.080897 9.675055 7.719988
257 257 1 22.863879 3.701330 9.795736
258 258 1 12.210262 14.758220 0.302616
259 259 1 21.049811 22.497851 9.443217
260 260 1 16.814547 22.265687 11.817759
261 261 1 3.681722 13.909447 10.138038
262 262 1 10.236929 17.775011 15.613011
263 263 1 22.339764 10.881577 1.892176
264 264 1 23.770385 20.247864 2.083078
265 265 1 22.225681 20.996046 8.669639
266 266 1 14.271179 9.630434 0.915052
267 267 1 8.090408 19.377881 0.077400
268 268 1 8.049423 9.610304 8.979730
269 269 1 22.201876 8.359498 5.797491
270 270 1 17.800523 10.914851 3.753084
271 271 1 10.920199 3.399762 2.947377
272 272 1 12.028735 10.111294 15.286819
273 273 1 8.746834 14.013232 10.564959
274 274 1 0.316051 16.015312 2.974931
275 275 1 23.196645 3.588163 6.928253
276 276 1 2.060022 24.060818 8.391538
277 277 1 14.370369 1.618975 12.531629
278 278 1 5.066336 21.675674 3.427826
279 279 1 4.602489 0.882172 7.888106
280 280 1 13.633154 1.585961 12.958849
281 281 1 10.940698 12.656821 7.365022
282 282 1 9.672922 13.507626 2.594021
283 283 1 4.391065 20.800283 15.809324
284 284 1 9.010291 6.534764 10.761052
285 285 1 9.865315 0.612732 2.609266
286 286 1 17.280893 15.903961 0.452766
287 287 1 5.357578 5.577282 11.227139
288 288 1 0.475739 2.512792 13.366374
289 289 1 4.309401 15.754851 3.979968
290 290 1 2.400144 5.869268 12.068878
291 291 1 20.653314 20.038404 6.636825
292 292 1 16.125078 4.947555 4.898416
293 293 1 21.634196 0.313818 1.428824
294 294 1 5.017597 0.640388 3.031735
295 295 1 14.072444 10.171613 14.916294
296 296 1 19.730032 8.250193 4.334893
297 297 1 9.164355 14.247513 4.479268
298 298 1 15.064622 9.881667 9.224554
299 299 1 10.526464 7.107303 15.848389
300 300 1 18.430589 3.381808 14.511857
301 301 1 11.764767 21.591147 13.365357
302 302 1 10.263065 0.542325 4.489523
303 303 1 13.073025 15.289796 4.309231
304 304 1 3.363535 20.152095 16.449085
305 305 1 12.688196 4.143696 4.550179
306 306 1 0.443882 22.067755 1.967588
307 307 1 13.914953 6.614669 9.260159
308 308 1 15.722853 20.026866 3.449242
309 309 1 0.265398 3.303907 15.039059
310 310 1 21.092440 14.419319 10.034468
311 311 1 16.051499 4.232807 15.279567
312 312 1 10.107555 9.247532 8.670969
313 313 1 1.133583 4.013459 12.332335
314 314 1 1.998450 14.557837 4.099715
315 315 1 9.396141 6.967988 5.943191
316 316 1 17.355080 7.171408 9.464463
317 317 1 11.490077 16.018541 15.654162
318 318 1 17.681552 5.187857 0.521061
319 319 1 6.330074 14.362957 0.859311
320 320 1 11.980426 14.405555 5.585122
321 321 1 18.606939 2.572883 1.255531
322 322 1 17.575755 11.959308 11.503011
323 323 1 10.495107 5.947224 13.686970
324 324 1 19.294911 16.767376 4.547469
325 325 1 14.245962 8.712561 1.530311
326 326 1 22.140521 3.302290 15.878200
327 327 1 10.764912 4.468417 9.055013
328 328 1 21.069649 17.673172 13.477411
329 329 1 15.900568 16.708968 14.189821
330 330 1 6.026052 11.812889 3.696348
331 331 1 23.838614 22.786064 0.658811
332 332 1 17.029947 22.332036 3.017363
333 333 1 13.708075 22.096465 0.567228
334 334 1 16.833118 7.176894 15.446401
335 335 1 23.437716 22.791063 7.923987
336 336 1 20.806487 20.384265 5.332079
337 337 1 20.006921 0.893226 9.963503
338 338 1 5.551554 2.910034 1.285866
339 339 1 16.805808 8.203311 12.110650
340 340 1 1.577458 7.609930 9.014748
341 341 1 19.085101 7.693494 10.458470
342 342 1 21.384191 14.864635 3.892688
343 343 1 0.588944 21.000934 0.355406
344 344 1 21.112029 12.766565 15.691558
345 345 1 19.279641 24.086399 5.860296
346 346 1 18.517057 9.701110 8.018587
347 347 1 15.145636 21.087300 16.443759
348 348 1 18.543248 10.083328 7.040757
349 349 1 17.802480 5.763188 1.845991
350 350 1 8.559253 6.932876 4.951226
351 351 1 5.638418 1.015972 0.298668
352 352 1 23.839926 10.324844 6.421991
353 353 1 16.404145 5.267833 15.873585
354 354 1 18.979429 2.158047 6.977658
355 355 1 21.218630 22.802300 7.810148
356 356 1 14.805458 4.031575 16.562150
357 357 1 5.591689 22.754021 10.855413
358 358 1 14.668494 12.374384 3.854428
359 359 1 4.260727 5.321713 3.115331
360 360 1 18.816255 8.450715 0.966535
361 361 1 23.390515 21.331288 15.502481
362 362 1 24.013356 4.197181 6.621093
363 363 1 18.301042 16.799336 2.571557
364 364 1 19.691162 5.417156 3.739930
365 365 1 12.960555 14.311354 9.693078
366 366 1 2.208150 21.178625 4.438102
367 367 1 3.126006 21.451056 15.968669
368 368 1 20.808538 19.538692 10.948910
369 369 1 13.295638 2.099535 6.825139
370 370 1 8.995308 6.269485 12.088147
371 371 1 11.968587 1.956153 3.679200
372 372 1 16.491312 1.837514 14.223429
373 373 1 11.950986 11.599564 9.898968
374 374 1 19.904716 8.394814 11.329460
375 375 1 13.654655 6.445064 14.681661
376 376 1 19.246883 15.892566 14.212982
377 377 1 16.834354 16.416056 10.336823
378 378 1 21.043044 0.705920 13.799167
379 379 1 3.110437 8.088516 12.423815
380 380 1 3.880143 19.742666 13.904729
381 381 1 12.248374 0.154131 4.796327
382 382 1 14.890310 23.682167 10.557427
383 383 1 6.270687 15.302528 9.023004
384 384 1 18.822553 2.582113 12.716563
385 385 1 13.064152 23.243027 5.712588
386 386 1 15.269128 22.495674 1.712909
387 387 1 22.621192 16.602990 1.133538
388 388 1 7.264135 17.092627 1.125410
389 389 1 14.051419 8.348324 10.375324
390 390 1 1.104042 21.035641 16.266728
391 391 1 23.385090 18.093793 2.173705
392 392 1 18.301639 0.593436 0.369678
393 393 1 7.810741 11.794020 12.873292
394 394 1 16.492196 10.762425 4.572225
395 395 1 24.066858 10.286424 7.542551
396 396 1 3.949267 19.183731 11.591236
397 397 1 5.328553 1.988370 11.370953
398 398 1 15.797454 6.595464 15.888664
399 399 1 3.645973 10.434946 15.767558
400 400 1 10.130648 15.411630 6.643691
401 401 1 6.618530 23.749542 6.839857
402 402 1 21.580213 5.550245 3.560920
403 403 1 0.751460 15.728801 6.157972
404 404 1 20.862377 11.421518 16.178241
405 405 1 4.477892 20.965316 12.976716
406 406 1 18.607172 20.389909 12.716498
407 407 1 15.114618 3.167761 0.543503
408 408 1 22.225825 14.883634 13.309915
409 409 1 11.622150 2.831381 2.091820
410 410 1 16.546983 10.385976 3.350712
411 411 1 11.865255 1.549764 9.724579
412 412 1 6.492495 19.250095 5.186061
413 413 1 10.987313 0.280476 1.210567
414 414 1 9.473327 11.583929 10.026175
415 415 1 7.039644 16.774265 14.372404
416 416 1 18.822688 0.956250 8.029136
417 417 1 2.532622 5.842062 16.486855
418 418 1 3.439310 12.041295 10.329209
419 419 1 16.954879 13.507827 0.163268
420 420 1 7.879556 12.495624 1.468225
421 421 1 8.462823 0.801399 1.313025
422 422 1 9.580244 3.203262 9.483449
423 423 1 16.641107 19.323170 3.344454
424 424 1 4.042403 2.523877 10.634571
425 425 1 17.051683 0.762371 15.643844
426 426 1 1.254393 13.064870 11.848203
427 427 1 8.193059 19.666832 1.338697
428 428 1 21.597529 13.216833 13.656817
429 429 1 10.917273 15.533560 8.796041
430 430 1 17.657836 1.970243 1.008466
431 431 1 5.964148 3.850812 14.567259
432 432 1 5.291006 23.553739 5.629434
433 433 1 12.024582 13.404400 12.017660
434 434 1 5.514043 24.047776 16.288521
435 435 1 15.696431 4.816209 11.366423
436 436 1 1.742600 0.739837 4.305809
437 437 1 11.165989 20.956853 12.150791
438 438 1 17.926159 10.269819 5.780477
439 439 1 8.955489 23.838169 0.670213
440 440 1 20.926899 13.967061 7.329141
441 441 1 17.505009 11.746369 14.594658
442 442 1 21.739576 10.178767 4.625715
443 443 1 14.297123 22.021041 3.520106
444 444 1 15.036085 15.243503 12.250113
445 445 1 3.175552 17.277339 15.189679
446 446 1 4.336879 5.733408 16.231740
447 447 1 4.368107 20.621662 8.225825
448 448 1 5.967234 21.016648 7.440926
449 449 1 12.425767 8.670551 9.908043
450 450 1 3.946855 9.439246 16.198608
451 451 1 6.230376 15.851168 5.433835
452 452 1 18.668750 3.158801 16.205438
453 453 1 10.952783 5.697376 1.228110
454 454 1 4.097321 12.545400 5.631229
455 455 1 20.006146 10.400014 4.155946
456 456 1 14.895573 17.058960 2.791223
457 457 1 4.045701 0.885111 12.305071
458 458 1 16.021760 11.455815 14.105852
459 459 1 19.445866 14.128266 14.508570
460 460 1 4.968237 2.701321 4.507440
461 461 1 1.377863 12.820447 15.650419
462 462 1 0.949606 2.947277 7.556119
463 463 1 22.540252 7.630827 8.475752
464 464 1 1.003413 3.580450 16.486313
465 465 1 23.294358 0.119233 15.904508
466 466 1 15.425966 20.948303 7.598576
467 467 1 12.444561 11.798929 11.143115
468 468 1 3.370659 0.723450 5.145423
469 469 1 17.008359 4.871988 11.252867
470 470 1 23.410051 2.266412 11.238993
471 471 1 10.710472 20.953709 2.960123
472 472 1 16.717401 20.228970 15.784239
473 473 1 16.491053 11.999940 10.324054
474 474 1 20.972118 13.772386 0.507759
475 475 1 22.469622 16.642598 11.304349
476 476 1 5.205592 15.903032 6.581364
477 477 1 15.718330 2.572757 10.992411
478 478 1 24.122111 1.163658 16.328307
479 479 1 9.821237 21.016733 13.073442
480 480 1 13.685653 17.823404 14.679749
481 481 1 9.754437 7.893358 11.155298
482 482 1 19.498381 18.398714 13.331243
483 483 1 10.513353 19.739461 2.008660
484 484 1 13.141931 0.138993 5.423738
485 485 1 8.845012 9.562128 11.621062
486 486 1 9.378340 10.829787 3.969296
487 487 1 9.008903 5.485439 1.223083
488 488 1 14.564993 16.128159 10.351510
489 489 1 11.187014 9.166609 14.426063
490 490 1 12.528694 11.565659 0.428472
491 491 1 8.236447 9.176501 6.664217
492 492 1 14.003192 12.879171 10.157924
493 493 1 18.461423 19.622437 11.999635
494 494 1 23.062770 0.440066 3.271395
495 495 1 0.182540 15.627619 15.005839
496 496 1 5.876752 22.375149 1.007051
497 497 1 22.553793 8.486857 1.694714
498 498 1 11.727128 6.197626 4.760146
499 499 1 7.416831 19.382043 9.009234
500 500 1 7.513804 14.731176 11.966677
501 501 1 6.580124 9.981529 2.036682
502 502 1 4.372268 16.439639 3.031784
503 503 1 12.675481 17.113726 1.785883
504 504 1 13.692796 6.192467 16.090238
505 505 1 11.670984 19.453647 9.194131
506 506 1 1.047816 15.281907 15.897683
507 507 1 14.520660 19.772157 14.774842
508 508 1 5.504993 5.117970 10.209321
509 509 1 9.920691 20.271112 15.039134
510 510 1 8.530271 5.717170 13.042363
511 511 1 6.632790 19.854835 7.080547
512 512 1 10.903983 14.158536 2.807470
513 513 1 17.785378 20.824696 3.621661
514 514 1 2.310192 0.570547 10.727164
515 515 1 14.652981 13.195232 3.875771
516 516 1 9.435010 14.348437 8.300835
517 517 1 23.841450 3.293146 11.615671
518 518 1 9.758744 10.335138 11.990858
519 519 1 16.712820 23.925214 2.145433
520 520 1 2.512818 17.482831 9.664683
521 521 1 6.617214 1.916887 1.431325
522 522 1 21.582425 4.630960 5.403448
523 523 1 5.470638 8.568284 1.160053
524 524 1 12.528163 1.631915 13.373733
525 525 1 5.640936 13.033869 14.705875
526 526 1 15.709747 12.863609 5.419526
527 527 1 8.037421 16.158913 16.611790
528 528 1 15.974324 13.462807 12.208965
529 529 1 11.228325 1.451611 9.395822
530 530 1 23.113495 4.231158 11.529788
531 531 1 4.849788 12.932877 1.615436
532 532 1 10.870271 18.250956 5.807823
533 533 1 16.048484 19.199189 15.492882
534 534 1 5.663383 9.637994 2.546829
535 535 1 23.954842 22.374338 9.022532
536 536 1 20.323536 12.573978 10.419942
537 537 1 2.151131 18.229405 2.134057
538 538 1 19.938185 18.875235 11.842925
539 539 1 0.872776 7.316385 4.396537
540 540 1 8.692347 2.115368 15.656303
541 541 1 13.366716 7.374215 6.633450
542 542 1 10.793798 14.496102 8.616859
543 543 1 22.190685 11.994841 16.578682
544 544 1 20.550216 5.032664 15.549985
545 545 1 2.808650 19.730180 6.360109
546 546 1 21.191018 20.951644 13.466788
547 547 1 19.068382 7.353816 1.352139
548 548 1 9.726435 4.188233 11.612438
549 549 1 8.353554 23.547583 10.710464
550 550 1 19.851606 3.198650 14.404020
551 551 1 22.271909 11.755854 10.130317
552 552 1 18.459650 4.219951 8.397738
553 553 1 9.622235 3.532921 6.141397
554 554 1 1.645425 0.623003 2.258591
555 555 1 23.245999 13.263589 16.138618
556 556 1 10.438882 7.526076 8.457489
557 557 1 10.608169 2.550350 10.708028
558 558 1 5.214354 14.954537 10.864678
559 559 1 3.669312 1.480751 13.046307
560 560 1 11.097863 1.403857 16.623937
561 561 1 1.394607 16.775552 16.436999
562 562 1 5.772914 3.433368 2.028308
563 563 1 7.319928 2.438868 11.565822
564 564 1 1.503491 12.295546 16.654525
565 565 1 19.646200 14.849098 5.117412
566 566 1 15.058513 12.720811 7.119734
567 567 1 3.154860 21.399312 7.515775
568 568 1 4.697460 8.876336 6.919992
569 569 1 19.973671 17.706709 12.854869
570 570 1 0.266253 10.044402 8.043126
571 571 1 0.463230 6.270920 12.704230
572 572 1 3.309316 12.920386 3.595963
573 573 1 0.292550 5.821702 16.306577
574 574 1 19.346110 23.160593 8.151904
575 575 1 2.648622 13.225694 7.592518
576 576 1 20.379624 2.367347 8.158373
577 577 1 3.621614 7.836463 12.321030
578 578 1 11.489298 9.072538 6.591588
579 579 1 11.089328 18.947365 14.906485
580 580 1 23.058208 18.992906 5.270361
581 581 1 16.609000 10.562104 4.255475
582 582 1 20.295497 0.927468 15.068190
583 583 1 11.138341 15.379662 11.017619
584 584 1 21.604796 15.366826 10.258658
585 585 1 1.608731 12.512432 2.509282
586 586 1 17.798895 12.363122 11.366416
587 587 1 1.005828 2.046562 11.969563
588 588 1 1.739846 1.719871 0.202329
589 589 1 23.086368 17.800695 5.902732
590 590 1 7.157260 8.440529 12.944243
591 591 1 15.963014 4.469929 2.909318
592 592 1 2.374903 15.937239 12.772453
593 593 1 6.397230 0.505533 1.373066
594 594 1 23.360523 7.130933 12.853503
595 595 1 15.077044 9.218595 3.436977
596 596 1 2.929814 14.844114 12.943913
597 597 1 15.541442 12.799511 0.700993
598 598 1 23.652821 14.527172 9.732119
599 599 1 18.055690 19.593088 10.969574
600 600 1 3.091752 8.164513 15.508018
601 601 1 10.605594 14.794070 15.758533
602 602 1 5.809422 2.932589 3.299677
603 603 1 21.407052 15.587459 4.777422
604 604 1 19.693909 20.790252 14.145017
605 605 1 22.179452 6.088155 12.616539
606 606 1 11.115702 20.322698 12.172875
607 607 1 18.740539 15.837294 2.964785
608 608 1 13.154912 23.766247 15.663492
609 609 1 1.042053 3.978014 2.201151
610 610 1 17.522441 19.738281 3.567715
611 611 1 12.209393 20.291428 12.244908
612 612 1 13.087579 14.248786 8.494562
613 613 1 7.181707 13.637519 11.511080
614 614 1 21.078751 15.357695 12.718128
615 615 1 3.863531 11.140272 0.155929
616 616 1 5.953906 17.534070 16.572866
617 617 1 2.393789 9.690572 13.368962
618 618 1 4.924658 13.397676 12.249416
619 619 1 14.867586 4.538214 5.938377
620 620 1 18.917804 13.376956 0.087385
621 621 1 18.367472 0.852284 12.461003
622 622 1 4.887124 23.124312 6.148187
623 623 1 7.890907 3.593601 5.106561
624 624 1 21.159072 24.047787 6.154349
625 625 1 10.827784 17.428093 14.808083
626 626 1 14.313873 9.449967 6.894795
627 627 1 16.789622 0.077677 10.353164
628 628 1 8.580272 19.168955 1.553848
629 629 1 14.197004 11.608888 10.733080
630 630 1 1.565323 13.998641 9.382250
631 631 1 13.532239 14.565936 11.303590
632 632 1 19.429425 6.512464 13.786344
633 633 1 12.026030 1.859899 0.978370
634 634 1 8.067264 18.944479 11.825150
635 635 1 19.034217 12.484941 7.355602
636 636 1 3.558953 7.921346 7.252342
637 637 1 2.138483 5.324748 9.996177
638 638 1 17.756158 24.096377 15.592062
639 639 1 15.509122 10.167353 10.630346
640 640 1 18.962693 2.856193 6.849396
641 641 1 20.269688 9.264293 9.555825
642 642 1 8.073852 0.632291 0.404238
643 643 1 20.074058 6.590909 8.656951
644 644 1 7.210119 22.704481 4.332776
645 645 1 10.370309 21.064446 14.068474
646 646 1 4.491793 19.372809 7.656174
647 647 1 11.657063 3.221708 1.346829
648 648 1 17.569734 11.982716 7.299653
649 649 1 17.607602 18.476620 2.655311
650 650 1 14.728554 3.266942 12.555267
651 651 1 15.856442 23.089101 1.152269
652 652 1 1.377088 6.810941 4.373029
653 653 1 5.961145 21.873598 4.169847
654 654 1 6.563850 18.329035 7.515027
655 655 1 18.746889 1.577695 8.147178
656 656 1 0.811307 1.512214 15.146316
657 657 1 3.360863 12.850645 6.869292
658 658 1 8.383570 21.718613 0.364663
659 659 1 16.021402 23.252740 9.360253
660 660 1 22.611392 1.261310 6.997919
661 661 1 6.191677 15.789330 3.310156
662 662 1 13.644959 11.197596 16.241937
663 663 1 14.687574 8.435777 1.906509
664 664 1 3.650533 5.438308 4.193583
665 665 1 20.530692 13.545820 8.745715
666 666 1 2.770092 20.760557 12.078024
667 667 1 1.633261 17.084493 9.082371
668 668 1 1.972544 11.061664 8.099139
669 669 1 4.001178 22.825618 14.202850
670 670 1 16.147698 11.158087 6.880487
671 671 1 12.369898 19.463569 7.673770
672 672 1 1.254038 18.977817 3.364732
673 673 1 6.242140 3.975396 5.517801
674 674 1 18.265153 12.536033 3.423509
675 675 1 21.187537 21.229818 14.547122
676 676 1 5.763648 10.891231 16.458901
677 677 1 18.633495 0.655720 1.089550
678 678 1 11.197569 21.945177 9.001556
679 679 1 12.015333 2.545741 10.974612
680 680 1 19.842497 9.181917 12.960257
681 681 1 23.278861 4.918161 8.744692
682 682 1 6.930437 19.136542 9.651423
683 683 1 15.316447 19.258665 6.616556
684 684 1 22.086854 12.865324 2.639381
685 685 1 16.796403 19.146364 5.292999
686 686 1 20.689103 21.870911 4.626996
687 687 1 23.738532 3.396250 3.375625
688 688 1 4.446499 21.577570 10.933045
689 689 1 3.671229 10.627761 10.281458
690 690 1 2.014511 21.298233 13.427990
691 691 1 12.193803 23.342821 6.980669
692 692 1 23.752744 16.121092 10.605179
693 693 1 4.005531 21.286439 7.143233
694 694 1 3.915708 0.304298 9.353361
695 695 1 12.729455 17.362507 14.875963
696 696 1 1.916578 17.655591 3.131601
697 697 1 20.713186 19.769132 9.036512
698 698 1 17.142606 7.587237 7.873084
699 699 1 19.831243 11.084945 5.978709
700 700 1 11.928441 19.990841 5.601233
701 701 1 4.193955 17.185357 13.801864
702 702 1 2.429013 5.789664 2.372312
703 703 1 8.398005 10.869789 12.512678
704 704 1 15.716269 14.986895 5.888087
705 705 1 20.309399 11.375111 16.360569
706 706 1 15.305821 3.047559 11.298738
707 707 1 7.846796 16.565373 1.163684
708 708 1 4.220984 20.654299 3.796107
709 709 1 20.203044 6.740681 10.742377
710 710 1 16.754200 12.373569 5.101656
711 711 1 5.132440 0.801067 5.078859
712 712 1 15.764908 22.647171 14.557583
713 713 1 18.489940 19.030172 11.111711
714 714 1 6.282352 21.896297 11.207749
715 715 1 13.526942 2.678871 7.470173
716 716 1 11.111328 20.867334 9.134339
717 717 1 9.181447 23.576309 1.850110
718 718 1 10.198740 1.014319 12.363591
719 719 1 22.158936 6.759054 14.342649
720 720 1 7.053056 21.982587 12.598492
721 721 1 19.427441 0.434611 16.088291
722 722 1 17.539121 7.355552 13.858952
723 723 1 6.794869 21.065015 1.881187
724 724 1 16.984349 13.050440 1.613064
725 725 1 5.838413 0.299387 7.832981
726 726 1 7.271417 14.442113 4.966760
727 727 1 7.238926 17.937906 0.804453
728 728 1 21.792510 20.570464 11.158829
729 729 1 14.318151 21.536847 3.096815
730 730 1 1.906020 5.780880 13.277180
731 731 1 0.836811 14.066778 16.633482
732 732 1 20.653305 12.585750 1.063422
733 733 1 20.066249 14.457102 1.920498
734 734 1 2.265364 21.954991 11.182149
735 735 1 20.015883 21.215265 9.554156
736 736 1 12.489221 10.388909 5.296089
737 737 1 10.489522 18.678562 10.057972
738 738 1 21.542176 10.701536 10.144297
739 739 1 15.237404 14.281358 11.740813
740 740 1 5.730756 12.366546 1.741567
741 741 1 9.280666 11.770460 10.898485
742 742 1 22.942266 14.497471 12.425246
743 743 1 12.219370 15.304901 1.185257
744 744 1 6.140062 8.733781 7.895232
745 745 1 1.101790 3.379658 4.625490
746 746 1 23.449168 7.997478 8.054771
747 747 1 4.733066 14.741948 4.690138
748 748 1 4.996027 12.468132 0.092000
749 749 1 0.184981 5.287502 0.613604
750 750 1 2.607338 8.178829 13.410982
751 751 1 13.807116 12.373883 4.904116
752 752 1 22.489052 9.582459 1.455296
753 753 1 14.893679 2.747633 5.768582
754 754 1 12.247027 21.100464 8.247025
755 755 1 16.949902 23.962887 2.197146
756 756 1 6.630992 9.523592 7.048631
757 757 1 9.920512 21.906337 11.931285
758 758 1 14.672559 7.467101 13.765306
759 759 1 23.051591 19.820657 0.026152
760 760 1 15.360350 1.234217 4.304544
761 761 1 1.436704 14.573365 11.472725
762 762 1 2.763304 9.264436 7.623584
763 763 1 8.907560 2.921091 7.000500
764 764 1 18.130630 1.713860 1.339786
765 765 1 8.562853 22.729738 11.171662
766 766 1 16.380556 8.735396 9.919905
767 767 1 0.244529 15.352981 15.260769
768 768 1 14.785234 21.087818 12.097387
769 769 1 2.909830 21.781849 1.110258
770 770 1 12.887979 3.430659 0.195614
771 771 1 10.186329 7.121180 8.120932
772 772 1 13.931448 1.055698 2.055351
773 773 1 13.483539 8.282777 12.184285
774 774 1 15.743882 20.409728 11.571361
775 775 1 10.376929 16.242899 4.601542
776 776 1 7.393263 19.043152 7.459545